256
Lattice="6.839904 0.0 0.0 0.0 6.839904 0.0 0.0 0.0 6.839904" Properties=species:S:1:pos:R:3 Time=100
Ar  3.29958353e+00 -2.48752763e+00  3.04076630e+00
Ar -2.04721232e+00 -7.49542270e-01 -1.89150969e+00
Ar -2.94735123e+00 -3.61566786e-01  9.83497895e-02
Ar -5.82267555e-01 -1.67354230e+00  1.93394977e+00
Ar  2.83547484e+00  2.51561879e-01 -1.89017180e-01
Ar -2.38505239e+00  1.86503724e+00  2.99979433e+00
Ar -1.33260115e+00 -1.00973976e+00  2.58872392e+00
Ar  5.22511429e-01 -3.41925195e+00  1.55463136e-01
Ar  2.30764922e+00 -2.02147952e+00  2.84267053e+00
Ar  6.34903673e-01 -3.32626125e+00  1.33453409e+00
Ar -2.72486279e+00 -1.73732209e+00  2.26061699e+00
Ar  1.33002524e+00 -3.00658893e+00 -1.69310629e+00
Ar -2.27640125e+00 -5.11998918e-01  9.11741642e-01
Ar  8.77253683e-01  1.54970549e+00 -2.28722894e+00
Ar  7.02524699e-01 -1.75891443e+00  2.46148464e-01
Ar  1.42154634e+00 -2.00695955e+00 -1.16150326e+00
Ar -3.18046540e-01 -1.90160250e+00  9.84951520e-01
Ar -1.08214245e+00  2.79972210e+00 -8.39700284e-01
Ar  3.97699857e-02 -8.57687217e-01 -9.65706798e-02
Ar  3.72149915e-01 -2.66046341e+00  2.20342034e+00
Ar  2.67111451e+00  1.84799960e+00 -3.24622487e+00
Ar -3.21127033e+00 -5.14813600e-01 -1.55263901e+00
Ar -1.21800693e+00 -2.44299000e+00  1.57783861e+00
Ar  1.91514702e+00 -1.10149365e-01  5.56093526e-01
Ar  2.72878772e-01  1.02515258e+00  2.11256611e+00
Ar  2.01403031e+00  4.12591765e-02  2.87795377e+00
Ar -1.31792563e+00 -1.09480930e+00 -2.72369351e+00
Ar -2.07375502e+00  3.05595772e+00  1.82983847e+00
Ar  2.66254812e+00 -3.22062905e+00 -1.80769508e+00
Ar  1.72082927e+00 -2.88328160e+00  3.10146261e+00
Ar -3.20254363e+00 -2.61194868e+00  1.41641658e+00
Ar -2.10503313e+00 -2.90087486e+00  2.57566787e-02
Ar  2.72241283e+00  3.26511070e-01 -1.73331738e+00
Ar  2.38818231e+00  3.35878749e-03  1.85442468e+00
Ar -1.48882957e+00  1.91797796e+00 -6.24321263e-01
Ar -1.61801534e+00  2.47858255e-01  8.04546043e-01
Ar -2.94191871e+00  8.09194933e-01  1.40077547e-01
Ar  2.28741912e+00 -2.59474850e+00  1.92884692e+00
Ar  3.32900844e+00  3.01045503e+00  8.83730673e-01
Ar  2.75468349e+00 -3.10154933e+00  4.40063628e-01
Ar  2.46897201e+00  1.68293504e+00 -1.12714270e+00
Ar  2.20519559e+00 -3.38367864e+00 -3.64347133e-01
Ar -2.04515558e+00  1.58897192e-01 -3.67327393e-01
Ar  3.38614665e+00  1.32910065e+00  1.58256665e+00
Ar -1.87562014e+00  1.27198640e-01  2.57560071e+00
Ar -1.69888757e+00  3.03468661e+00  2.60974707e-02
Ar  1.41618374e+00  3.04930449e+00 -8.68653036e-01
Ar  7.20654817e-01  1.53582498e+00  3.36484701e+00
Ar  1.72381017e+00  2.06247216e+00 -2.61662250e+00
Ar  2.79253334e+00 -1.85980141e+00 -3.14047517e+00
Ar -6.64348375e-01 -1.68685514e+00 -1.10923852e+00
Ar -1.15728149e+00 -3.04885434e+00 -7.01622682e-01
Ar -2.35616285e+00 -3.12719144e+00 -1.42858906e+00
Ar  2.92714929e+00 -1.85758167e+00  8.67766928e-01
Ar -4.99385569e-01  2.88488598e+00  9.98234455e-01
Ar -2.61635768e+00 -3.10745790e+00  8.48989751e-01
Ar -6.92424343e-01 -7.28972856e-01  8.19845266e-01
Ar  8.05787291e-01 -3.36684368e+00  3.07838490e+00
Ar -6.45827036e-01 -2.56731787e-01 -2.52992535e+00
Ar  2.34894526e+00 -2.51866545e+00 -1.08133765e+00
Ar -2.42218075e+00 -2.67822704e+00  3.15352770e+00
Ar  1.45122680e+00  1.76702503e+00  7.61594598e-01
Ar -1.24876331e+00  1.70030802e+00  2.97328284e+00
Ar  1.52826830e+00  1.18172856e+00 -1.12222670e+00
Ar  5.39163104e-01 -3.59997357e-02  1.96616042e+00
Ar  2.29459422e+00 -9.72883058e-01  2.81218028e+00
Ar  1.05214459e+00  1.73886416e-01 -1.14088677e-02
Ar -1.36835814e+00 -2.14546715e+00 -8.44033388e-02
Ar  8.25665243e-01  1.32289420e+00 -1.63192997e-01
Ar  1.25831294e+00  1.58975604e+00  2.46019754e+00
Ar -2.54669517e+00 -9.88347112e-01 -2.73673915e+00
Ar  3.04320986e+00  2.75850340e+00  3.00064641e+00
Ar -1.82680085e+00  9.63975908e-01  3.31472713e+00
Ar  7.25302911e-01 -5.26146403e-01 -9.66590297e-01
Ar  3.58167948e-01 -1.82278867e+00 -1.36877397e+00
Ar -2.48391008e+00  3.11942014e+00 -2.47113332e+00
Ar  7.22607002e-01  2.30023484e+00 -6.05368453e-01
Ar  1.11012967e+00 -1.31773030e+00  1.22892439e+00
Ar -1.44909130e+00 -3.04081842e+00 -2.16843180e+00
Ar -2.53279479e+00  1.83917979e-01  3.26794788e+00
Ar  2.43830287e+00  9.48205233e-01  2.40452774e+00
Ar  3.32643008e+00  1.60617211e+00  2.78359562e+00
Ar -3.06526530e+00 -3.18847621e+00 -3.06927178e+00
Ar -1.39000281e+00  2.75325937e+00  3.26811998e+00
Ar  2.19070701e+00  3.22480641e+00  1.34663708e+00
Ar  1.05128758e+00 -2.36439955e+00 -2.69060930e+00
Ar  3.03628089e+00 -5.90289389e-01  8.60096414e-01
Ar  1.13788381e+00  5.81554067e-01  2.43391144e+00
Ar  1.44566350e+00 -1.12176705e+00 -1.88935381e+00
Ar -2.48799293e+00 -8.49585657e-01 -7.86327939e-01
Ar -3.10312181e+00 -4.64112525e-01  2.27045474e+00
Ar -2.97115472e+00  2.37931551e+00  2.24521372e+00
Ar -2.91644919e+00  2.55330918e+00 -3.17311480e+00
Ar -3.32730377e+00 -2.59541748e+00 -1.16794633e+00
Ar  4.51159086e-01 -7.78001149e-02 -2.93361739e+00
Ar -2.38938714e-01  1.25795787e+00  5.86365972e-01
Ar -1.14807183e+00 -5.04897220e-01  1.62192962e+00
Ar  1.33240745e+00 -1.36496494e+00 -3.32635128e+00
Ar  2.58295856e+00  1.87557995e+00 -2.15071245e+00
Ar  3.93992113e-01 -1.40982179e+00  2.92213344e+00
Ar  2.71443846e+00 -3.21620384e+00 -3.38679336e+00
Ar -1.19741255e+00 -4.04914674e-01 -4.55768095e-02
Ar  2.45089607e+00  7.29091312e-01 -3.19250998e+00
Ar  1.71736898e+00  1.22320664e+00  3.27089533e+00
Ar  3.35053989e+00 -1.33636599e+00 -2.12985365e+00
Ar -2.47441922e+00 -2.38035705e+00 -2.63417144e+00
Ar  1.89999692e+00  2.45484511e+00 -1.61876615e+00
Ar  1.31884543e+00 -2.91282666e+00 -3.02600841e-01
Ar -2.83397066e+00 -1.46760700e+00  1.78849641e-01
Ar -3.35585614e+00 -5.95730989e-01 -3.35804786e+00
Ar  2.86116896e+00  2.37734486e+00  1.63308236e+00
Ar -6.04074120e-01 -3.41433259e+00 -3.08375992e+00
Ar -1.74567986e+00 -5.76882583e-02 -2.75118828e+00
Ar  7.42179222e-01  4.74447444e-01 -1.03986657e+00
Ar -4.16139687e-01  1.77875879e+00 -4.63794222e-01
Ar -6.02455287e-01 -2.45160408e+00 -2.53495334e+00
Ar  1.10289727e+00 -2.10091674e+00  2.72535747e+00
Ar  1.83335407e+00 -1.75711175e-01 -1.79265714e+00
Ar  2.19725206e+00 -1.24438562e+00  5.21628469e-01
Ar  3.23581478e+00  4.53883070e-01  2.67452856e+00
Ar  1.06435747e+00 -8.14332129e-01  2.07523640e-01
Ar -2.37538738e+00  2.96736897e+00  2.86315001e+00
Ar  2.78452337e+00  2.76727854e+00 -2.50286457e+00
Ar -4.24835807e-01 -3.27463867e+00  1.80413765e+00
Ar  2.51473207e+00  3.40186280e+00  2.37676436e+00
Ar  2.48515693e+00 -1.82053415e+00 -3.99219499e-01
Ar  3.48637880e-01 -3.40850727e+00 -2.88637803e+00
Ar  7.93444953e-01  8.82536017e-01  9.25664336e-01
Ar  2.21745985e+00  1.53156173e+00  1.56098353e+00
Ar -3.19914709e+00 -1.22423636e+00  1.39189279e+00
Ar  1.70863638e+00  1.90813530e-01 -8.34840491e-01
Ar -5.57964608e-01 -2.90938919e+00  5.28020071e-01
Ar  3.72260364e-03  1.10939879e+00 -2.74888510e+00
Ar -3.04959045e+00  2.29911923e+00 -2.11767682e+00
Ar  3.27971613e+00 -2.63336734e+00 -2.41490393e+00
Ar  3.40845511e+00  1.22213614e+00 -2.08702836e+00
Ar  5.45568193e-01 -1.75056171e+00  1.86496505e+00
Ar -1.09801482e+00 -2.99244045e+00  2.64644590e+00
Ar -2.99783062e-01  2.16807567e+00 -1.40214245e+00
Ar -7.59591126e-01  8.00472801e-01  2.36074778e+00
Ar -1.99168176e+00  2.19980684e+00 -2.88230310e+00
Ar -4.63827681e-01  3.16245118e+00 -2.10023777e+00
Ar  6.64558218e-01 -4.50861825e-01 -1.99787965e+00
Ar -2.94346270e+00  2.49969874e-01  1.24261046e+00
Ar -2.74439545e-01 -1.00107940e+00 -3.21103333e+00
Ar -1.38375744e+00 -3.39261307e+00  8.49084910e-01
Ar  1.74913722e+00  2.92331017e+00  3.21072493e+00
Ar -1.38186599e+00 -1.51629673e+00  1.33445189e+00
Ar -3.13998997e+00  1.62952523e+00 -5.84730265e-01
Ar -1.11035388e+00  7.82444736e-01  6.79651446e-02
Ar  2.40513180e+00  2.22910106e+00  2.39628757e+00
Ar  1.39234639e+00 -1.22461826e+00  2.40809230e+00
Ar -2.64203124e+00  8.24285012e-01  2.40861388e+00
Ar  9.31904556e-02  2.31548454e+00 -2.43452197e+00
Ar  1.00620807e+00  2.53413911e+00 -2.99604512e+00
Ar -2.60296193e+00  3.45124379e-01 -1.49272344e+00
Ar -2.72711953e-01 -1.21014815e+00 -2.01107886e+00
Ar -3.31347379e+00 -2.49794451e+00  2.76831401e-01
Ar  2.19370135e+00 -1.13658561e+00 -2.62417025e+00
Ar -3.27946748e+00 -1.46249293e+00 -1.10833251e+00
Ar  1.54494362e+00 -2.57666892e-01  1.52361830e+00
Ar  5.00719590e-01 -1.42366210e+00 -2.71361077e+00
Ar -2.25635155e+00  2.47950680e+00  7.89303246e-01
Ar  1.81985079e+00 -2.42386150e+00  3.69432813e-01
Ar  1.67994315e+00  2.87888631e+00  2.05118143e-01
Ar -1.10514449e+00 -2.06832342e-01  3.30576995e+00
Ar -3.05446277e+00  1.75352369e+00  6.92982627e-01
Ar -2.08106702e+00 -8.34640435e-01  1.91786537e+00
Ar  1.42032140e+00 -4.59018895e-01 -2.75552144e+00
Ar  2.55657295e-01  4.40973573e-01 -1.95623331e+00
Ar -3.08529609e+00  1.37248372e-01 -2.36624966e+00
Ar -2.53550374e+00 -2.06911367e+00 -6.75547883e-01
Ar -3.20109963e-01 -2.10228592e+00 -6.56224987e-02
Ar  2.76337303e+00 -9.09950351e-01  1.77038723e+00
Ar  1.81733835e+00  9.55327280e-01 -2.12842361e+00
Ar  1.98413144e+00 -2.17584905e+00 -2.49987784e+00
Ar -1.55270287e+00 -1.96078357e+00 -2.28664799e+00
Ar -2.53292733e-01 -4.73625653e-01  2.66734389e+00
Ar  3.48629927e-01 -2.73398932e+00 -2.09191116e+00
Ar -2.77573548e-01  1.46418917e+00  2.89978614e+00
Ar  2.76947433e+00 -3.62056042e-01 -9.69172068e-01
Ar  1.74386374e+00  3.33966023e+00 -2.57512186e+00
Ar -9.65547172e-01  2.60090484e+00  2.37080567e+00
Ar  6.09312501e-01  1.81457782e+00  1.58611965e+00
Ar -3.28773892e-01  3.30992857e-01  1.34759572e+00
Ar  4.06667602e-01  1.41013861e+00 -1.25765049e+00
Ar -1.89537682e+00 -3.34556685e+00 -3.19607664e+00
Ar -6.36685209e-01 -1.76913022e+00  2.96365751e+00
Ar -1.81453594e+00 -1.67263825e+00 -3.38277990e+00
Ar  2.93403364e+00  2.43690700e+00 -3.27819408e-01
Ar -2.45586719e+00  1.14995227e+00 -2.61432297e+00
Ar -2.45356758e+00 -1.56608572e+00 -1.93391166e+00
Ar -2.15154422e+00  1.25614748e+00 -1.49971571e+00
Ar -2.08582514e+00  2.51153049e+00 -1.65008150e+00
Ar  1.76808487e+00  6.77858674e-01  1.38894228e+00
Ar -1.44286116e+00  7.77342625e-01 -8.62607853e-01
Ar -3.05390894e+00  3.33572768e+00 -1.03224517e-01
Ar -1.69271074e+00  2.11271971e+00  1.53288573e+00
Ar -1.60779646e-01  2.90181572e-01  3.45042323e-01
Ar  3.21108472e+00 -1.27501195e+00  2.73871574e+00
Ar -5.20912501e-01  1.79106285e+00  1.86540158e+00
Ar  9.42057386e-01  2.28538551e+00 -1.54553099e+00
Ar -1.37478289e+00  1.19865179e+00 -2.24817583e+00
Ar -1.05401102e+00  1.88399540e+00  5.21601423e-01
Ar  3.41800311e+00  8.53331695e-01 -3.18488220e+00
Ar -1.35065883e-01  6.15067733e-01 -5.86879600e-01
Ar -1.68961872e+00 -1.36833405e+00 -1.24489621e+00
Ar  1.13138477e+00  5.85305934e-01 -2.98520624e+00
Ar  2.96296719e-01 -2.84125551e+00 -5.19710694e-01
Ar  6.46198792e-01  3.10882569e+00 -1.85792903e+00
Ar -3.29921673e+00 -3.24300470e+00  2.25482182e+00
Ar -1.97819769e+00  1.21438978e+00  5.06037880e-01
Ar -5.00356764e-01  2.74848755e+00  2.33998028e-02
Ar  1.96636654e+00  8.17696498e-01  2.06960036e-01
Ar  5.27766601e-01 -2.16207610e-01  8.85793002e-01
Ar -1.09019779e+00  2.42616904e+00 -2.02574760e+00
Ar -4.96659261e-01 -3.52951767e-01 -1.35372383e+00
Ar  2.48099835e+00 -1.38239413e+00 -1.39692733e+00
Ar -8.69345235e-02 -2.70207886e+00  3.32885778e+00
Ar -1.10710466e+00  1.08269348e+00  1.14812228e+00
Ar -8.98840152e-01  1.90231770e+00 -2.92152093e+00
Ar -5.71112883e-01  1.01698290e+00 -1.51583312e+00
Ar -7.49289562e-01  6.07551021e-01 -3.05164226e+00
Ar  8.15989450e-01 -4.08542316e-01  2.91030489e+00
Ar -2.75365362e-01  3.22333667e+00  2.74335648e+00
Ar  9.18376077e-01  2.51831180e+00  2.72475882e+00
Ar -1.94113885e+00 -2.25033043e+00  8.54869767e-01
Ar -2.96585940e+00  2.95553916e+00 -1.12229604e+00
Ar  3.28861792e+00  6.84907893e-01 -9.73187946e-01
Ar  2.04687131e+00 -1.75185178e+00  1.55953404e+00
Ar  2.82181344e+00  1.26707843e+00  3.58836728e-01
Ar  2.51526796e+00  2.30572565e+00  6.20117887e-01
Ar -2.37566407e+00  1.26601606e+00  1.52142565e+00
Ar  2.48936991e+00 -2.17612532e-01 -2.65947525e+00
Ar  3.04174044e+00  2.47866211e+00 -1.44856234e+00
Ar  2.77248775e+00  5.52968037e-01  1.08614462e+00
Ar  3.06270620e+00 -1.88611037e+00  2.01318625e+00
Ar -2.44204151e+00 -1.01390485e+00  2.92098622e+00
Ar  3.09442522e+00 -1.08479192e+00 -2.39621948e-01
Ar  7.04372897e-01  2.52108837e+00  7.29098703e-01
Ar  1.50217673e+00 -3.41854884e+00  2.20285400e+00
Ar  1.96122995e+00  2.09037022e+00 -3.47407691e-01
Ar  1.77395617e+00 -9.28323432e-01 -6.48321707e-01
Ar -1.40273683e+00 -1.07981044e-02 -1.56891936e+00
Ar -1.88400129e+00 -1.18376697e+00  2.49076175e-01
Ar -1.64858786e-01  2.34094994e+00  3.41216307e+00
Ar -2.53799872e+00  2.37178970e+00 -2.97904938e-01
Ar  4.11184243e-02  4.80851691e-01  2.96502828e+00
Ar -1.50474912e-01  3.09055388e+00 -8.64105954e-01
Ar -4.28466392e-01 -2.60543574e+00 -1.47268864e+00
Ar  1.39065259e+00  2.68833214e+00  1.58739751e+00
Ar -1.68125166e+00 -2.01116077e+00  2.50567348e+00
Ar  1.26573106e+00 -2.51981094e+00  1.63560445e+00
Ar -2.09690894e+00 -2.77233655e+00  1.74483817e+00
Ar -1.63617060e+00 -2.45109076e+00 -1.36610698e+00
Ar -2.98725414e+00 -1.79118477e+00 -3.33919909e+00
256
Lattice="6.839904 0.0 0.0 0.0 6.839904 0.0 0.0 0.0 6.839904" Properties=species:S:1:pos:R:3 Time=200
Ar  3.24046055e+00 -2.58793722e+00  3.07488880e+00
Ar -2.10164810e+00 -1.38396697e-01 -2.00669463e+00
Ar -2.74553291e+00  3.72744063e-02  1.56142708e-01
Ar -8.25518955e-01 -1.81042605e+00  2.40248575e+00
Ar  3.06326058e+00  2.74543282e-01 -4.40008701e-02
Ar -2.25766459e+00  2.15455666e+00  2.95226298e+00
Ar -1.55392166e+00 -5.11892718e-01  2.74692663e+00
Ar  1.34269452e-01  3.00784279e+00 -3.06331419e-01
Ar  2.27702011e+00 -1.64589355e+00  2.66205338e+00
Ar  3.01039866e-01  3.20129135e+00  7.48894216e-01
Ar -2.87957807e+00 -1.90816223e+00  2.19433027e+00
Ar  7.72739644e-01 -2.99378349e+00 -1.46599892e+00
Ar -1.84476501e+00 -3.68261695e-01  5.33785585e-01
Ar  6.23942139e-01  1.45003541e+00 -2.38189580e+00
Ar  6.17928957e-01 -2.07711672e+00  1.50179503e-01
Ar  1.53437457e+00 -1.73473011e+00 -8.84334083e-01
Ar -1.43886728e-01 -1.64304659e+00  8.83121593e-01
Ar -7.88020787e-01  2.39018523e+00 -4.48673392e-01
Ar -7.92814170e-02 -1.20991866e+00 -1.94382059e-01
Ar -1.60312465e-01 -2.61968754e+00  2.56483551e+00
Ar  2.89024106e+00  1.77698389e+00 -3.08999385e+00
Ar -3.31326612e+00 -5.29925436e-01 -1.78823883e+00
Ar -9.72981766e-01 -2.29144786e+00  1.34617112e+00
Ar  2.12351986e+00 -1.44488558e-01  9.10695586e-02
Ar  4.89710224e-02  8.81146081e-01  1.91241419e+00
Ar  1.83344334e+00  2.27204398e-01  3.24802409e+00
Ar -1.54494728e+00 -1.01876825e+00 -3.10357671e+00
Ar -2.06789123e+00  2.97511195e+00  2.38757562e+00
Ar  2.81847862e+00  3.11526716e+00 -1.28981438e+00
Ar  1.84727891e+00 -2.55799417e+00  3.06963320e+00
Ar -3.15604820e+00 -2.23408697e+00  1.22440287e+00
Ar -2.00523530e+00 -2.91052049e+00 -8.07037237e-01
Ar  2.86325924e+00  7.97716094e-01 -2.23729644e+00
Ar  2.41378142e+00  3.78947904e-01  2.34521635e+00
Ar -1.67923177e+00  1.79789486e+00 -7.39702876e-01
Ar -1.90280748e+00  6.08425350e-01  8.25963573e-01
Ar -2.36573023e+00  9.06740771e-01 -1.98604272e-01
Ar  2.02139515e+00 -2.50951192e+00  1.73985648e+00
Ar  3.24521901e+00  3.02957521e+00  6.99979890e-01
Ar  2.66179719e+00 -2.69017137e+00  1.32735483e-01
Ar  2.26981776e+00  7.79717392e-01 -9.27268098e-01
Ar  2.03083957e+00  3.16516906e+00 -3.69625655e-01
Ar -1.82254546e+00  4.04181894e-02 -4.62555382e-01
Ar  3.11091845e+00  1.14660561e+00  1.83542115e+00
Ar -2.23915043e+00  7.25946608e-01  2.42457338e+00
Ar -1.66867302e+00  2.97188196e+00 -1.31821963e-01
Ar  1.02782038e+00  2.94909039e+00 -6.98530669e-01
Ar  7.74847177e-01  7.65494434e-01  3.27528508e+00
Ar  1.63654618e+00  2.44554370e+00 -2.34433138e+00
Ar  2.20595068e+00 -2.12043754e+00 -2.69982314e+00
Ar -4.63424047e-01 -1.52198225e+00 -1.04971202e+00
Ar -9.54012436e-01 -3.31243650e+00 -6.38288582e-01
Ar -2.41041235e+00 -2.70032532e+00 -1.75770153e+00
Ar  2.99818091e+00 -1.62189377e+00  6.15483448e-01
Ar  2.09813087e-01  2.70878944e+00  1.94540553e+00
Ar -2.72511910e+00 -3.28438571e+00  7.41562853e-01
Ar -8.10946103e-01 -7.01065081e-01  7.34077387e-01
Ar  9.45070317e-01 -3.32804950e+00  2.85825102e+00
Ar -8.45826512e-01 -4.49242657e-01 -2.40443330e+00
Ar  2.50277351e+00 -2.91287075e+00 -9.44335789e-01
Ar -2.65518767e+00 -2.92943844e+00  2.93647795e+00
Ar  1.05193583e+00  2.13996379e+00  1.99496644e-01
Ar -1.48462961e+00  1.64652621e+00  2.31213105e+00
Ar  1.36181432e+00  1.12066176e+00 -8.10546989e-01
Ar  4.59674508e-01 -4.42181186e-01  2.04083977e+00
Ar  2.14075870e+00 -6.11381916e-01  2.83644158e+00
Ar  1.14069010e+00  2.74212817e-02  1.58785924e-01
Ar -1.04409042e+00 -1.74154548e+00  4.09034639e-01
Ar  6.39876753e-01  1.21986121e+00  1.99722200e-01
Ar  1.30599552e+00  1.79153490e+00  2.16399187e+00
Ar -2.62700616e+00 -1.06473651e+00 -2.59544413e+00
Ar  3.10012840e+00  2.89496132e+00  3.11133651e+00
Ar -1.41926029e+00  8.39416304e-01  3.04375197e+00
Ar  9.69367098e-01 -7.68103038e-01 -1.44919434e+00
Ar  4.72299050e-01 -2.12108670e+00 -1.19327342e+00
Ar -2.42794936e+00  3.15740373e+00 -2.30257767e+00
Ar  1.92760331e-01  2.04368970e+00 -8.56549283e-01
Ar  1.16250116e+00 -1.19797139e+00  9.66562809e-01
Ar -1.27267758e+00 -3.00853398e+00 -1.68327518e+00
Ar -2.66332781e+00 -1.50073708e-01  2.79347237e+00
Ar  2.13242809e+00  1.46389945e+00  2.70205535e+00
Ar  2.95015128e+00  2.03050918e+00  2.54321128e+00
Ar -3.25300530e+00 -3.04504987e+00 -2.83589320e+00
Ar -1.33537797e+00  2.60411026e+00  3.12567272e+00
Ar  2.20183983e+00  3.30617188e+00  1.29180986e+00
Ar  1.19884123e+00 -2.53974258e+00 -3.01461452e+00
Ar  2.87776243e+00 -5.31834583e-01  7.99349576e-01
Ar  1.21775963e+00  6.33042951e-01  2.17247960e+00
Ar  1.15797952e+00 -1.50853409e+00 -2.14019260e+00
Ar -2.09141011e+00 -8.83718069e-01 -9.56370330e-01
Ar -2.78374464e+00 -8.48311357e-01  2.01612125e+00
Ar -2.79331197e+00  1.79489840e+00  2.11473178e+00
Ar -2.95216503e+00  2.43640563e+00 -2.99444167e+00
Ar -3.20874707e+00 -2.61740456e+00 -1.17918077e+00
Ar  2.46379177e-01  2.39259570e-02 -3.05521087e+00
Ar -2.90713944e-01  1.18233404e+00  5.79338957e-01
Ar -1.08520067e+00 -8.57303315e-01  1.75693791e+00
Ar  1.30589134e+00 -1.53234363e+00  3.26118637e+00
Ar  2.52863076e+00  1.88809488e+00 -2.13936346e+00
Ar  2.73946577e-01 -1.55819503e+00  2.94972175e+00
Ar  2.55598678e+00 -3.20352619e+00 -3.37559305e+00
Ar -8.82818474e-01  1.01772171e-01  1.48687652e-01
Ar  2.90436346e+00  7.61266825e-01 -3.29331900e+00
Ar  1.69323024e+00  1.35438277e+00 -2.96981344e+00
Ar  3.13783906e+00 -1.19321962e+00 -2.43308894e+00
Ar -2.59508715e+00 -2.32031050e+00 -2.83814512e+00
Ar  1.80856725e+00  3.05226595e+00 -1.46150787e+00
Ar  1.51137442e+00 -2.87238513e+00 -6.75801378e-01
Ar -2.42975924e+00 -1.13984429e+00  2.24804597e-01
Ar  3.28430023e+00 -5.25948377e-01  3.11135867e+00
Ar -3.24948675e+00  2.80725436e+00  1.86139983e+00
Ar -8.50510617e-01 -3.33624499e+00 -3.26013419e+00
Ar -2.16079732e+00 -2.26970690e-02 -3.16682436e+00
Ar  9.40746316e-01  4.25734895e-01 -1.38795159e+00
Ar -4.47356337e-01  1.39761196e+00 -3.82146159e-01
Ar -7.65374316e-01 -2.53401014e+00 -2.46130475e+00
Ar  1.09734928e+00 -2.27739402e+00  2.25138611e+00
Ar  1.71833571e+00 -1.16343191e-01 -1.86417622e+00
Ar  2.05637644e+00 -1.15684696e+00  3.94579368e-01
Ar -3.05798268e+00  1.80845439e-01  1.76138548e+00
Ar  1.10211792e+00 -9.28207556e-01 -3.07786813e-01
Ar -2.93867517e+00 -3.07848034e+00  1.99469848e+00
Ar  2.69532506e+00  3.01601876e+00 -2.40650759e+00
Ar -4.92177125e-01 -3.34306471e+00  1.45077739e+00
Ar  2.58596047e+00 -3.28462796e+00  2.36635197e+00
Ar  2.64949034e+00 -1.90742171e+00 -4.81682346e-01
Ar  3.91023498e-01  3.19425415e+00 -2.97449907e+00
Ar  6.70052489e-01  5.41180816e-01  1.00159062e+00
Ar  2.18191595e+00  1.59793514e+00  1.35352730e+00
Ar -3.05759163e+00 -1.17980579e+00  9.93905652e-01
Ar  1.60965045e+00 -8.76549443e-02 -8.18550380e-01
Ar -2.05491987e-01 -2.70839110e+00  7.30780475e-01
Ar -2.53786862e-01  9.22026254e-01 -2.90309940e+00
Ar -3.37286517e+00  2.51214425e+00 -1.84989845e+00
Ar  2.73491797e+00 -2.82613080e+00 -1.99968258e+00
Ar -2.88713628e+00  1.74928806e+00 -2.26261725e+00
Ar  1.16798005e-01 -1.28724365e+00  1.91397870e+00
Ar -1.27464352e+00 -2.80529508e+00  2.31720830e+00
Ar -7.06477579e-01  2.14398280e+00 -1.52685504e+00
Ar -9.02256919e-01  3.64126304e-01  2.20240041e+00
Ar -1.84568225e+00  1.47056487e+00 -2.91861325e+00
Ar -4.09450873e-01 -3.41452213e+00 -2.25704693e+00
Ar  2.10112797e-01 -7.12888109e-01 -2.14011840e+00
Ar -2.93169191e+00  9.05013948e-01  8.72215074e-01
Ar -1.43478070e-01 -8.88473502e-01 -3.22834767e+00
Ar -1.80727458e+00 -3.41245549e+00  1.45916101e+00
Ar  2.16203545e+00  2.57856671e+00 -3.41276285e+00
Ar -1.99071255e+00 -1.38925231e+00  1.14916534e+00
Ar -3.33670200e+00  1.23651714e+00 -2.15362985e-01
Ar -1.41634112e+00  8.35510618e-01 -2.19869536e-01
Ar  2.12086330e+00  2.49811148e+00  2.02733296e+00
Ar  1.26268445e+00 -1.30003457e+00  2.27595468e+00
Ar -3.02588853e+00  1.31612607e+00  2.96127944e+00
Ar -3.19895043e-02  2.35235714e+00 -2.33327721e+00
Ar  1.20599592e+00  2.53980347e+00 -3.33239680e+00
Ar -2.69760968e+00 -6.12202895e-02 -1.05261463e+00
Ar -3.69239892e-01 -1.50424049e+00 -2.09885063e+00
Ar -3.08738839e+00 -2.33528691e+00 -7.87191350e-02
Ar  2.19211001e+00 -1.19279310e+00 -2.59273220e+00
Ar  3.37495730e+00 -1.53886078e+00 -1.31337008e+00
Ar  1.93113409e+00 -4.42573116e-01  1.43942758e+00
Ar  3.74845499e-01 -1.59952921e+00 -2.80489699e+00
Ar -2.18376121e+00  2.68460701e+00  6.86898135e-01
Ar  1.78007719e+00 -2.19013698e+00  6.10382806e-01
Ar  1.42631881e+00  3.33242804e+00  4.64736655e-01
Ar -8.30189830e-01 -3.98248766e-02  3.39967299e+00
Ar -3.25381557e+00  2.11638660e+00  1.06957657e+00
Ar -1.97335138e+00 -2.06251074e-01  1.83255221e+00
Ar  1.20806891e+00 -6.90509751e-01 -2.84611383e+00
Ar  1.06409997e-01  3.71324054e-01 -2.00464199e+00
Ar -3.11300010e+00 -8.46900537e-02 -2.84638927e+00
Ar -2.53164770e+00 -1.70051211e+00 -6.21808562e-01
Ar -3.65918949e-01 -2.35584823e+00 -3.98910814e-01
Ar  2.81043869e+00 -8.20710319e-01  1.95158508e+00
Ar  1.86937619e+00  1.01286335e+00 -1.83720661e+00
Ar  1.77402732e+00 -2.41708465e+00 -1.89674760e+00
Ar -1.59687706e+00 -2.08476830e+00 -2.54535963e+00
Ar -3.59994512e-01 -4.72608955e-01  2.68233593e+00
Ar  2.72857596e-01 -2.45392691e+00 -2.24549032e+00
Ar -4.30520575e-01  1.58366056e+00  2.65150679e+00
Ar  2.96354890e+00 -2.22311310e-01 -8.99723321e-01
Ar  1.72825254e+00  3.29573261e+00 -2.78315143e+00
Ar -9.59545446e-01  2.84315822e+00  2.23133246e+00
Ar  6.58005666e-01  1.72252619e+00  1.04779676e+00
Ar -4.58085224e-01  3.89713924e-01  1.28469179e+00
Ar  2.59525273e-01  1.22264482e+00 -1.47316545e+00
Ar -1.96219964e+00 -3.21913245e+00 -3.09073461e+00
Ar -7.45768012e-01 -1.80060398e+00 -3.29625540e+00
Ar -1.73216010e+00 -2.19761850e+00  3.08136694e+00
Ar  2.92128525e+00  2.46194363e+00 -3.58269483e-01
Ar -2.84283699e+00  6.19358849e-01 -1.97058970e+00
Ar -2.31855244e+00 -1.61972359e+00 -1.73717828e+00
Ar -2.70390865e+00  1.51695538e+00 -1.23986821e+00
Ar -1.55179810e+00  2.89876668e+00 -1.30050260e+00
Ar  1.73768538e+00  7.38924395e-01  1.17176399e+00
Ar -1.88846666e+00  8.66753870e-01 -1.22480382e+00
Ar -3.13393485e+00 -3.40031581e+00 -2.69227745e-01
Ar -1.43276248e+00  2.23194075e+00  1.29008260e+00
Ar  1.10764717e-01  1.55445618e-01  1.03611731e-01
Ar  3.19526092e+00 -1.40019735e+00  2.66085153e+00
Ar -3.98525205e-01  1.89706451e+00  1.51390033e+00
Ar  1.01339000e+00  1.95739997e+00 -1.55649843e+00
Ar -1.80409130e+00  1.88659504e+00 -1.84495690e+00
Ar -9.52618782e-01  1.89180331e+00  4.13554347e-01
Ar -2.97658646e+00  1.06764125e+00 -2.90648599e+00
Ar -1.20792693e-01  4.39440295e-01 -8.45875181e-01
Ar -1.39485619e+00 -1.18262287e+00 -1.73171303e+00
Ar  1.12340377e+00  5.80411085e-01 -2.52540243e+00
Ar  4.87716651e-01 -2.93685196e+00 -3.79905970e-01
Ar  8.82696565e-01  2.99486289e+00 -1.93999881e+00
Ar  3.08792482e+00 -2.95118801e+00  1.31324397e+00
Ar -1.91966066e+00  1.66094806e+00  3.73801939e-01
Ar -8.20834737e-01  3.28600387e+00  2.79109421e-01
Ar  1.86188091e+00  9.66442395e-01  1.14667226e-01
Ar  3.16046449e-01 -4.80405493e-01  9.56705223e-01
Ar -1.33697147e+00  2.74120343e+00 -2.42646093e+00
Ar -3.69102672e-01 -5.61036426e-01 -1.13005726e+00
Ar  2.54273536e+00 -1.89652787e+00 -1.59792436e+00
Ar  2.15323794e-01 -2.51909292e+00 -3.31524778e+00
Ar -1.18458726e+00  1.08167196e+00  1.50948356e+00
Ar -9.61722613e-01  1.75669744e+00 -2.56666318e+00
Ar -7.66214580e-01  1.13594172e+00 -1.54883462e+00
Ar -1.35867570e+00  4.92891624e-01 -2.57154179e+00
Ar  7.95775368e-01 -5.92067950e-01  3.04616691e+00
Ar -2.16005484e-01  3.02242284e+00  2.91215771e+00
Ar  6.45632143e-01  2.42820334e+00  2.70643650e+00
Ar -1.83737215e+00 -2.71247135e+00  6.36271532e-01
Ar -2.62716762e+00  2.99770318e+00 -1.04596159e+00
Ar  3.36084421e+00  6.99343969e-01 -1.14423391e+00
Ar  2.16531396e+00 -1.50895303e+00  1.61636367e+00
Ar  2.76316447e+00  1.30357495e+00  5.02088921e-01
Ar  2.17971637e+00  2.35858858e+00  6.08988840e-01
Ar -2.33295970e+00  1.66022332e+00  1.26789832e+00
Ar  2.67967183e+00 -2.13194202e-01 -2.73609895e+00
Ar  2.98165648e+00  1.66755423e+00 -1.19905191e+00
Ar  2.93393070e+00  4.16930805e-01  1.07799693e+00
Ar  3.01058091e+00 -2.23410482e+00  2.04380831e+00
Ar -2.61064783e+00 -1.10658968e+00  3.01965220e+00
Ar  3.28938802e+00 -1.05187091e+00 -2.50459713e-01
Ar -3.71857036e-02  2.30701002e+00  3.78393285e-01
Ar  1.03993020e+00 -3.29468985e+00  1.48502003e+00
Ar  2.05845374e+00  1.83736546e+00 -5.69981708e-01
Ar  2.10734872e+00 -1.02795561e+00 -6.03332305e-01
Ar -1.20360264e+00 -6.11875634e-02 -1.36196308e+00
Ar -1.13076361e+00 -8.63859269e-01 -3.44369376e-01
Ar  2.23362338e-01  1.75969089e+00 -3.27471924e+00
Ar -2.86299032e+00  2.15547831e+00 -2.88009989e-01
Ar -3.47769938e-03  5.15694677e-01  2.81605413e+00
Ar -2.51977790e-02  2.86109963e+00 -1.34413823e+00
Ar -2.42900122e-01 -2.94896983e+00 -1.35481841e+00
Ar  1.33647671e+00  2.45336167e+00  1.18537971e+00
Ar -1.86368714e+00 -1.35266512e+00  2.25296444e+00
Ar  5.17079346e-01 -2.27990513e+00  1.45974412e+00
Ar -1.97331722e+00 -2.43543243e+00  1.57025353e+00
Ar -1.44702147e+00 -1.92750349e+00 -7.02948730e-01
Ar -3.27080633e+00 -1.68468145e+00 -3.19013739e+00
256
Lattice="6.839904 0.0 0.0 0.0 6.839904 0.0 0.0 0.0 6.839904" Properties=species:S:1:pos:R:3 Time=300
Ar  3.30115223e+00 -2.62763550e+00  3.05541990e+00
Ar -2.53748061e+00 -4.77944302e-01 -1.94453412e+00
Ar -2.77709171e+00 -1.58066123e-01  1.96599229e-01
Ar -5.78889573e-01 -1.27914779e+00  2.35421677e+00
Ar  3.11406389e+00  4.91991370e-01 -2.24760901e-01
Ar -2.00048878e+00  2.07065656e+00  2.96244339e+00
Ar -1.76326275e+00 -4.36574594e-01  2.80069173e+00
Ar  1.90471218e-01  2.93319285e+00 -2.95477129e-01
Ar  2.18682611e+00 -1.35803414e+00  2.51198498e+00
Ar  4.38509347e-01  3.40847634e+00  5.30893841e-01
Ar -2.85854580e+00 -2.25638146e+00  2.39520253e+00
Ar  1.13034857e+00 -2.98361943e+00 -1.47457735e+00
Ar -1.86988317e+00 -5.11428433e-01  5.75718653e-01
Ar  9.22447472e-01  1.55777770e+00 -2.51165266e+00
Ar  1.15324394e+00 -1.73784680e+00 -7.64124957e-02
Ar  1.52051044e+00 -1.67935019e+00 -1.05594786e+00
Ar -1.14356870e-01 -1.62172150e+00  6.04832654e-01
Ar -8.30220373e-01  2.83905363e+00 -7.80701674e-01
Ar -9.55916685e-02 -8.37632285e-01 -2.38168920e-01
Ar -3.45876692e-01 -2.38328379e+00  2.58869117e+00
Ar  3.31396658e+00  2.33313019e+00 -3.18145504e+00
Ar  3.36208594e+00 -4.04466324e-02 -1.93470212e+00
Ar -7.71607128e-01 -2.08940558e+00  1.09802388e+00
Ar  2.24789680e+00 -1.56811611e-01  3.52775697e-02
Ar -2.11598216e-01  6.57319114e-01  1.96693597e+00
Ar  2.25200101e+00 -3.28334418e-01 -3.15287651e+00
Ar -1.72398340e+00 -6.38115209e-01 -2.87499637e+00
Ar -1.87664881e+00  2.90343380e+00  2.34245950e+00
Ar  2.85101819e+00  2.92030090e+00 -7.14372769e-01
Ar  1.40419928e+00 -2.43853144e+00  2.89996551e+00
Ar -2.81783088e+00 -1.91221581e+00  1.43135007e+00
Ar -2.33102379e+00 -3.00150346e+00 -2.98522378e-01
Ar  3.15206208e+00  9.06080923e-01 -1.51626589e+00
Ar  2.52883442e+00  6.54669862e-01  1.75362784e+00
Ar -1.74884848e+00  1.80653654e+00 -9.21741767e-01
Ar -2.14411587e+00  5.21249863e-01  6.64701028e-01
Ar -2.69603605e+00  9.62240943e-01 -4.31554759e-01
Ar  1.96740151e+00 -2.63416741e+00  2.00632456e+00
Ar  3.36293326e+00  2.89563828e+00  5.08008321e-01
Ar  2.63270154e+00 -3.01499924e+00  2.57013396e-01
Ar  2.37841880e+00  6.96072161e-01 -8.80326910e-01
Ar  1.77558733e+00  3.05257249e+00  1.41617536e-01
Ar -1.92465538e+00  8.02039662e-03 -3.67552870e-01
Ar -3.05238295e+00  1.41652922e+00  2.13855263e+00
Ar -2.36864699e+00  6.31850859e-01  2.32669489e+00
Ar -1.90808374e+00  2.82988374e+00 -2.00347488e-01
Ar  1.07260175e+00  2.93806995e+00 -8.63289229e-01
Ar  1.15834358e+00  9.86300238e-01 -3.32405202e+00
Ar  1.72230397e+00  2.26157852e+00 -2.34548448e+00
Ar  1.93951821e+00 -2.41408660e+00 -2.81088226e+00
Ar -3.68462695e-01 -2.15583792e+00 -1.62095164e+00
Ar -8.91142573e-01 -3.00298514e+00 -7.84536604e-01
Ar -2.75764017e+00 -2.36412179e+00 -2.30808135e+00
Ar  3.02856161e+00 -1.97134616e+00  9.07187484e-01
Ar  2.60491166e-01  2.70424260e+00  1.50112622e+00
Ar -3.03988323e+00 -2.73459305e+00  8.61559116e-01
Ar -7.05668399e-01 -6.69463065e-01  6.29657377e-01
Ar  1.43401756e+00  3.18781286e+00  3.33834911e+00
Ar -7.85332954e-01 -4.73377755e-01 -2.30566022e+00
Ar  2.43619310e+00 -3.09016548e+00 -9.29351237e-01
Ar -2.30477474e+00 -3.23531949e+00  3.03365263e+00
Ar  1.41724929e+00  2.06778571e+00  7.00552639e-01
Ar -1.83001859e+00  1.46862382e+00  2.10789961e+00
Ar  1.25031834e+00  9.92584292e-01 -8.97693360e-01
Ar  3.65010938e-01 -3.89054899e-01  1.81204748e+00
Ar  1.87142428e+00 -4.52621376e-01  2.71520857e+00
Ar  1.36561227e+00  4.16158372e-01  2.69340802e-02
Ar -1.32386572e+00 -1.55718403e+00  2.91894967e-01
Ar  7.76122819e-01  1.21472922e+00  1.64622017e-01
Ar  1.01152137e+00  9.66856934e-01  2.10921069e+00