256
Lattice="6.839904 0.0 0.0 0.0 6.839904 0.0 0.0 0.0 6.839904" Properties=species:S:1:pos:R:3 Time=1
Ar  3.29343640e+00 -3.39577381e+00 -3.13233268e+00
Ar -2.28659301e+00 -9.96554283e-01 -2.68218981e+00
Ar -2.77363040e+00 -1.42918553e-01  3.61920764e-01
Ar -3.11670998e-01 -1.82503384e+00  2.26600396e+00
Ar  2.95300180e+00  4.65521203e-01  3.83679837e-01
Ar -3.07226649e+00  1.82660424e+00 -3.29057646e+00
Ar -1.69383540e+00 -1.38031192e+00  2.57167296e+00
Ar  2.15845918e-01  2.87454441e+00  1.05547590e-01
Ar  2.12330759e+00 -2.13117551e+00  2.64235363e+00
Ar  4.82993098e-01 -2.89482126e+00  2.15644302e+00
Ar  3.31660791e+00 -2.61043759e+00  2.69427846e+00
Ar  2.03884451e+00 -2.86596272e+00 -1.69440439e+00
Ar -3.28423683e+00 -8.31886375e-01  1.22350428e+00
Ar  1.23749618e+00  1.72848925e+00 -3.37734303e+00
Ar  8.26598634e-01 -2.41998164e+00  8.87016009e-01
Ar  1.85312325e+00 -2.14406482e+00 -2.24232697e-02
Ar  6.49817654e-02 -1.25895951e+00  1.37962611e+00
Ar -8.74641591e-01  2.55345753e+00 -9.68334200e-01
Ar  2.86619207e-01 -5.86401903e-01  3.43499244e-01
Ar  1.14895739e+00 -2.24935824e+00  2.26249746e+00
Ar  2.47539811e+00  1.84144669e+00 -3.06031345e+00
Ar  3.28394729e+00 -1.14709224e+00 -2.85820262e+00
Ar -1.43483971e+00 -2.80464258e+00  1.10489377e+00
Ar  2.04445032e+00 -1.32543513e-01  5.24374652e-01
Ar  8.34674901e-02  5.91722347e-01  1.63308543e+00
Ar  2.41919675e+00  6.43783687e-01  3.19561489e+00
Ar -1.13864359e+00 -7.33046378e-01 -2.20978324e+00
Ar -2.57373556e+00  2.56009063e+00  2.12478160e+00
Ar  3.11138524e+00  2.76525821e+00 -2.46978490e+00
Ar  1.18601248e+00 -2.50494357e+00 -3.40533773e+00
Ar -3.41651290e+00 -2.10017934e+00  5.93567869e-01
Ar -8.55267358e-01 -3.23673863e+00 -2.41002006e-01
Ar  1.95171894e+00 -3.95108245e-01 -1.45071702e+00
Ar  2.42731329e+00  3.59596214e-01  1.63935727e+00
Ar -1.49414015e+00  1.77758681e+00 -3.80582158e-01
Ar -2.07250895e+00 -3.61304461e-01  1.56250610e+00
Ar  3.18803128e+00  1.75676623e+00 -2.32167649e-01
Ar  2.58830827e+00 -2.40852043e+00  2.14973173e+00
Ar -3.29623402e+00  3.01540441e+00  1.16334532e+00
Ar  2.17573200e+00 -2.50110467e+00  6.73352346e-01
Ar  2.79261341e+00  1.87697026e+00 -9.16104614e-01
Ar  3.03888704e+00  2.63214323e+00 -3.75024451e-01
Ar -2.29227902e+00 -6.40237278e-01 -7.13664087e-02
Ar -3.20703720e+00  7.41652265e-01  1.99903827e+00
Ar -2.11786663e+00  7.97253763e-02  2.80218408e+00
Ar -1.30785872e+00  3.02751872e+00 -7.65900639e-01
Ar  2.94466246e+00  2.81382823e+00 -1.10999087e+00
Ar  1.86456562e-01  1.51193013e+00  3.09161408e+00
Ar  1.73713587e+00  1.78334688e+00 -2.81483877e+00
Ar  2.42109834e+00 -2.22540063e+00 -3.28472446e+00
Ar -5.53666116e-01 -1.39281033e+00 -8.32878314e-01
Ar -5.55971750e-01 -2.47297982e+00 -8.14997237e-01
Ar -1.22970406e+00 -3.40797704e+00 -1.88198893e+00
Ar -3.29186857e+00 -1.99308365e+00  1.53735084e-01
Ar -3.74469524e-02  2.61641378e+00  1.87297154e+00
Ar -3.02302334e+00 -2.68743349e+00  2.84481580e-01
Ar -1.08128142e+00 -2.95402603e-01  6.02744233e-01
Ar  6.87106393e-01 -2.85751307e+00  2.19528066e+00
Ar -7.75532818e-01  4.66858210e-01 -2.02842029e+00
Ar  2.68313859e+00 -2.21385927e+00 -1.99927938e+00
Ar -2.53805290e+00 -2.31487253e+00  3.39345113e+00
Ar  1.24192670e+00  2.13265519e+00  9.72737846e-01
Ar -1.16728103e+00  1.62484156e+00  2.21259071e+00
Ar  1.51340392e+00  1.08058448e+00 -9.65968932e-01
Ar  7.54884383e-01 -5.81366882e-01  2.15425631e+00
Ar  1.87389701e+00 -1.54369272e+00 -3.11392061e+00
Ar  6.91112321e-01  9.63818598e-02  8.90655312e-01
Ar -2.28257891e+00 -1.42332913e+00 -3.07050207e-01
Ar  1.09708820e+00  1.69996004e+00 -5.09944924e-01
Ar  8.07465908e-01  8.09087566e-01  2.42431089e+00
Ar -2.33986564e+00 -1.36476958e+00  3.38003586e+00
Ar -3.35714801e+00  3.08789670e+00  3.35671566e+00
Ar -2.01818217e+00  7.11987168e-01  2.97982036e+00
Ar  4.07434832e-01  3.20560143e-01 -4.16358898e-01
Ar -3.43691890e-01 -1.32143301e+00 -2.04640429e+00
Ar -1.96326756e+00 -3.04043939e+00 -2.02797674e+00
Ar  4.17633384e-01  2.80014444e+00 -5.18209184e-01
Ar  1.17258116e+00 -1.12520510e+00  6.96842444e-01
Ar -7.39081559e-01 -3.18842007e+00 -1.46704734e+00
Ar -2.79338917e+00 -3.80404363e-01  2.91336554e+00
Ar  2.75795855e+00  7.75685227e-01  2.42286675e+00
Ar -3.31928779e+00  1.27701546e+00  2.35681534e+00
Ar -2.53317724e+00 -3.01191028e+00 -3.33054001e+00
Ar -9.40628423e-01  2.60416576e+00  3.35486065e+00
Ar  2.90209253e+00  2.64511955e+00  1.10853403e+00
Ar  1.05957604e+00 -2.89779445e+00 -2.78399719e+00
Ar -3.39770764e+00  1.82420973e-01  1.98190495e+00
Ar  1.05347342e+00  3.13900565e-01  2.04094990e+00
Ar  1.55096750e+00 -1.68730355e+00 -1.67409321e+00
Ar -2.38077226e+00 -6.71856509e-02 -1.30712126e-01
Ar -2.64030513e+00  3.43693426e-02  2.37337136e+00
Ar -3.40087198e+00  2.21093390e+00  3.19845114e+00
Ar -3.33884353e+00  2.85346559e+00 -2.93282733e+00
Ar -3.16029391e+00 -2.11861294e+00 -1.52758597e+00
Ar -2.87535534e-01  8.79753894e-01 -2.40361237e+00
Ar -1.87702940e-01  1.11237597e+00  2.66286845e-01
Ar -9.79457846e-01 -7.24233843e-01  1.51840603e+00
Ar  1.53693877e+00 -1.32597668e+00 -2.69095021e+00
Ar  2.80969292e+00  1.64782690e+00 -1.78482041e+00
Ar  1.03517702e+00 -9.00053883e-01 -3.24087328e+00
Ar  2.38889030e+00 -3.13393408e+00 -3.03608920e+00
Ar -5.05888761e-01 -1.38622587e-01  1.15900851e-02
Ar  3.28675616e+00  7.35325578e-01  2.82252721e+00
Ar  1.82269336e+00  1.46495919e+00  3.34436999e+00
Ar -3.22014646e+00 -1.61224258e+00 -3.29470980e+00
Ar -2.86813503e+00 -2.36225777e+00 -2.63779651e+00
Ar  1.75469234e+00  2.99757949e+00 -2.53894640e+00
Ar  6.33454937e-01 -2.58189839e+00  6.78368155e-01
Ar -2.96938795e+00 -1.66876083e+00 -5.98828982e-01
Ar  3.07655859e+00 -9.90555936e-01 -3.40358527e+00
Ar  3.23818455e+00  1.79450721e+00  2.47587276e+00
Ar -4.65199068e-01  2.54982675e+00 -3.28612700e+00
Ar -1.99397416e+00 -5.24392355e-01  3.31614386e+00
Ar  3.57402556e-01  6.48559257e-01 -3.03053538e-01
Ar -3.85604089e-01  1.77363803e+00 -1.32657931e+00
Ar -5.65957464e-01 -2.74605727e+00 -2.48393761e+00
Ar  1.35524226e+00 -2.18570526e+00  2.68860863e+00
Ar  1.57918877e+00 -1.35233737e+00 -2.45403192e+00
Ar  2.27753762e+00 -4.71121275e-01  6.11547354e-01
Ar  3.26688901e+00  1.83926992e-02  2.71995193e+00
Ar  1.39459244e+00 -1.68814362e+00 -2.46403159e-01
Ar -1.62818747e+00  3.14969791e+00 -3.30414844e+00
Ar  2.94994433e+00  2.63685603e+00 -2.82593198e+00
Ar -1.47603330e-02 -2.85831081e+00  2.27741155e+00
Ar  2.52331166e+00 -2.76481404e+00  2.60102133e+00
Ar -3.37887040e+00 -2.03821135e+00 -1.87145730e-01
Ar  9.86526613e-01  2.96829812e+00 -2.74672648e+00
Ar  4.84935528e-01  5.18665726e-02  1.09052964e+00
Ar  2.61331421e+00  1.48993055e+00  1.26154360e+00
Ar  2.11584688e+00 -1.77557861e+00  1.80241743e+00
Ar  1.83807080e+00  2.89740654e-01 -1.29611007e-01
Ar -5.85629907e-01 -2.91675661e+00  1.82608782e-01
Ar  5.83013092e-02  1.65233926e+00 -2.54319079e+00
Ar -3.33734363e+00  1.77678917e+00 -2.64577093e+00
Ar  3.18252351e+00 -2.80952989e+00 -2.62706862e+00
Ar  2.79986595e+00  1.73682657e+00 -2.00385808e+00
Ar  7.06626283e-01 -1.65338840e+00  2.65134528e+00
Ar -7.10712490e-01 -3.03347796e+00  2.92211695e+00
Ar -2.47651464e-01  2.41059733e+00 -1.76201963e+00
Ar -7.55003805e-02  4.87372821e-01  2.41372808e+00
Ar -1.92636136e+00  2.87625480e+00 -3.15575319e+00
Ar -6.26602792e-01 -3.05183456e+00 -2.70065169e+00
Ar  2.03703523e-01  4.98998389e-01 -2.63682580e+00
Ar -3.08666278e+00  1.54198544e-01  1.39094146e+00
Ar -5.17478655e-03 -9.52398942e-01 -3.30496732e+00
Ar -9.13092367e-01  2.84266838e+00  3.37135922e-02
Ar  2.47446062e+00  2.89696101e+00 -3.31497924e+00
Ar -1.43664303e+00 -1.78276750e+00  1.48058217e+00
Ar -2.72519915e+00  1.89723768e+00 -1.74648584e+00
Ar -4.67420602e-01  6.26530549e-01  9.92880466e-02
Ar  1.83743983e+00  1.51563704e+00  2.07645192e+00
Ar  1.69292430e+00  3.11137804e-02  2.29427576e+00
Ar -3.01459076e+00  5.18946898e-01  2.47431858e+00
Ar  3.64826725e-01  2.37601060e+00 -2.69565978e+00
Ar  1.43756725e+00 -3.40919953e+00 -3.20246290e+00
Ar -1.42718631e+00  1.17260424e+00 -1.36636303e+00
Ar -4.52545269e-01 -1.55063522e+00 -2.56981491e+00
Ar -2.50115763e+00 -2.70215465e+00 -5.74329168e-01
Ar  2.26381341e+00 -1.66395351e+00 -2.42528113e+00
Ar -3.32502630e+00 -1.90647168e+00 -1.00604419e+00
Ar  1.79157639e+00 -5.38966571e-01  1.27694934e+00
Ar  1.82566645e-01 -1.16361095e+00 -2.43743789e+00
Ar -8.52538369e-01  1.67348595e+00  1.57238700e+00
Ar  1.58654115e+00 -2.23144901e+00  3.87803898e-01
Ar  1.26889882e+00  2.53388041e+00  3.99402320e-01
Ar -1.06197045e+00  2.43848556e-01  3.16184227e+00
Ar  2.89445012e+00  1.72854629e+00  1.27879331e+00
Ar -1.21003902e+00 -9.73885944e-01  1.40331812e+00
Ar  1.11185549e+00 -7.01422708e-01 -3.32596289e+00
Ar -6.29609579e-01  1.14576608e+00 -1.91896469e+00
Ar -2.81245273e+00  8.04174573e-01 -3.28875130e+00
Ar -1.93403826e+00 -2.01055546e+00 -8.58512729e-01
Ar -6.21960215e-01 -1.54793332e+00  2.90745895e-01
Ar  1.98587208e+00 -6.88934471e-01  1.66401869e+00
Ar  1.34939098e+00  9.02766369e-01 -2.57835315e+00
Ar  1.59616687e+00 -2.26601746e+00 -3.22769427e+00
Ar -1.79953348e+00 -2.39893821e+00 -2.22246564e+00
Ar  1.95934905e-01 -1.27979346e+00  2.74387044e+00
Ar -3.07825962e-01 -2.96278384e+00 -2.48006938e+00
Ar  2.41382536e-01  9.76969940e-01  2.33984525e+00
Ar  3.09914252e+00 -1.13953569e+00 -7.76476165e-01
Ar  1.54258379e+00 -3.23290957e+00 -2.59593034e+00
Ar -1.67957424e+00  3.10330251e+00  2.37559208e+00
Ar  1.17360421e+00  1.31714780e+00  2.02264775e+00
Ar  1.68327016e-01  5.68924905e-01  1.25798844e+00
Ar -2.71860578e-01  1.77669539e+00 -1.53020095e+00
Ar -1.41809984e+00 -2.74757377e+00 -2.72020974e+00
Ar -1.87267287e-01 -1.78122173e+00  3.04221010e+00
Ar -1.15881706e+00 -1.63511024e+00 -2.24794428e+00
Ar  2.55727907e+00  2.48844956e+00 -1.47230356e-01
Ar -1.93734998e+00  1.86573697e+00 -2.71746529e+00
Ar -1.88435589e+00 -1.83020479e+00 -2.42052384e+00
Ar -1.60724230e+00  2.08271059e+00 -2.67781897e+00
Ar -1.65351566e+00  2.59616721e+00 -1.94800297e+00
Ar  1.13041864e+00  7.75708907e-01  1.99177947e+00
Ar -1.05367764e+00  8.92095682e-01 -1.70646055e+00
Ar -3.17388038e+00  2.09982696e+00 -6.49212397e-01
Ar -4.75600469e-01  1.69353050e+00  2.06176230e+00
Ar -1.34507157e-01  1.47673436e+00 -7.68117318e-01
Ar -3.20973980e+00 -7.10722817e-01  2.78388933e+00
Ar  7.68489386e-01  2.28565707e+00  1.76348082e+00
Ar  7.29048048e-01  2.47221523e+00 -6.44945766e-01
Ar -1.75682681e+00  5.67146046e-01 -2.62518745e+00
Ar -6.52655795e-02  2.35983580e+00  1.39620502e+00
Ar -2.69689693e+00  1.37325325e+00 -3.16075867e+00
Ar -5.00042388e-01  1.58886584e+00 -1.53807505e+00
Ar -1.12351388e+00 -1.27209340e+00 -1.92618034e+00
Ar  8.19574842e-01  6.02568089e-01 -2.95367002e+00
Ar -6.43460756e-03 -2.44388261e+00 -1.52290871e+00
Ar  9.58101735e-01 -3.33523080e+00 -2.76911865e+00
Ar -3.06683443e+00 -3.26638098e+00  2.96531785e+00
Ar -2.96494702e+00  1.38754036e+00  5.08287560e-01
Ar -6.00897914e-01  3.33952752e+00 -2.71130655e-01
Ar  1.36636817e+00  1.27999667e+00  2.39569910e-01
Ar  5.19997476e-01  2.89494607e-01  6.90539798e-01
Ar -8.77195257e-01  2.72085543e+00 -1.74034705e+00
Ar -5.99230203e-01  4.80138543e-01 -1.43595014e+00
Ar  2.27164016e+00 -1.58775102e+00 -1.62830968e+00
Ar -4.56929388e-02 -2.96885674e+00 -2.67071733e+00
Ar -1.82624452e+00  8.03905809e-01  1.39244342e+00
Ar -1.64933636e+00  2.07380326e+00 -2.54316784e+00
Ar -6.50379262e-01  2.10971908e+00 -2.31690770e+00
Ar -4.79698305e-01  1.28188873e+00 -3.11744237e+00
Ar  2.93556111e-01  5.51140067e-02  2.82746157e+00
Ar -4.18530297e-01  2.48953433e+00  2.28013809e+00
Ar  1.13541410e+00  2.54561350e+00  2.83559905e+00
Ar -2.49186342e+00 -2.71771222e+00  1.25381233e+00
Ar -2.55847519e+00  2.85528038e+00 -1.48117160e+00
Ar -2.75191787e+00  6.43661771e-01 -1.97925169e+00
Ar  1.32204167e+00 -1.32010796e+00  2.08615963e+00
Ar  2.40911236e+00  1.84050620e+00  6.10986897e-01
Ar  2.51212105e+00  2.36298346e+00  1.00241308e+00
Ar -2.62012251e+00  8.26702506e-01  1.93371437e+00
Ar  2.80413431e+00 -3.35919412e-01 -2.76154466e+00
Ar  3.02758201e+00  2.39967699e+00 -2.49072728e+00
Ar  2.21947330e+00  1.28168226e+00  3.76380633e-01
Ar  3.15712132e+00 -1.07486628e+00  1.83072674e+00
Ar -2.00491624e+00 -5.43753495e-01  2.42481261e+00
Ar -3.26812696e+00 -1.65431076e+00  7.50205495e-02
Ar  8.72121213e-01  1.87317640e+00  8.73654665e-01
Ar  1.98543164e+00 -2.65022100e+00  2.64836940e+00
Ar  1.85321235e+00  2.42219778e+00 -7.40024514e-02
Ar  1.87450442e+00 -1.46644419e+00 -1.42458821e+00
Ar -2.06606557e+00 -1.38847498e+00 -1.60452803e-01
Ar -1.41111363e+00 -7.94657290e-01  6.63173986e-01
Ar -5.76983438e-01  2.51234896e+00 -3.09891859e+00
Ar -2.97693904e+00  1.65690569e+00 -3.66137383e-01
Ar -6.62991430e-02  2.27799593e-01  3.13506236e+00
Ar -1.73474830e-01  3.15567051e+00 -8.01641205e-01
Ar -2.52147449e-01 -3.17057102e+00 -1.14516650e+00
Ar  2.40564608e+00  2.94333389e+00  1.46613617e+00
Ar -1.77394234e+00 -2.06224695e+00  2.47543345e+00
Ar  1.33807644e+00 -2.26150233e+00  2.42647054e+00
Ar -2.14311874e+00 -2.99993448e+00  2.86060742e+00
Ar -1.19811825e+00 -2.03015602e+00 -1.38952100e+00
Ar -3.40016172e+00 -1.64397979e+00  2.53460815e+00
256
Lattice="6.839904 0.0 0.0 0.0 6.839904 0.0 0.0 0.0 6.839904" Properties=species:S:1:pos:R:3 Time=2
Ar  3.29343640e+00 -3.39577381e+00 -3.13233268e+00
Ar -2.28659301e+00 -9.96554283e-01 -2.68218981e+00
Ar -2.77363040e+00 -1.42918553e-01  3.61920764e-01
Ar -4.30458452e-01 -1.87632488e+00  2.15875090e+00
Ar  2.96178305e+00  6.24399934e-01  3.14196854e-01
Ar -3.07226649e+00  1.82660424e+00 -3.29057646e+00
Ar -1.79878930e+00 -1.28165863e+00  2.67851384e+00
Ar  1.80839198e-01  3.16830028e+00  2.40341265e-01
Ar  2.12330759e+00 -2.13117551e+00  2.64235363e+00
Ar  4.29087129e-01 -2.75522739e+00  2.27474774e+00
Ar  3.31660791e+00 -2.61043759e+00  2.69427846e+00
Ar  2.13100500e+00 -3.00269648e+00 -1.60236216e+00
Ar -3.28423683e+00 -8.31886375e-01  1.22350428e+00
Ar  1.23749618e+00  1.72848925e+00 -3.37734303e+00
Ar  7.10228009e-01 -2.37270768e+00  1.00670702e+00
Ar  1.85312325e+00 -2.14406482e+00 -2.24232697e-02
Ar  6.49817654e-02 -1.25895951e+00  1.37962611e+00
Ar -8.74641591e-01  2.55345753e+00 -9.68334200e-01
Ar  2.86619207e-01 -5.86401903e-01  3.43499244e-01
Ar  1.14895739e+00 -2.24935824e+00  2.26249746e+00
Ar  2.56742534e+00  1.88454995e+00 -2.97727256e+00
Ar  3.28394729e+00 -1.14709224e+00 -2.85820262e+00
Ar -1.43483971e+00 -2.80464258e+00  1.10489377e+00
Ar  2.04445032e+00 -1.32543513e-01  5.24374652e-01
Ar  8.34674901e-02  5.91722347e-01  1.63308543e+00
Ar  2.41919675e+00  6.43783687e-01  3.19561489e+00
Ar -1.13864359e+00 -7.33046378e-01 -2.20978324e+00
Ar -2.57373556e+00  2.56009063e+00  2.12478160e+00
Ar  3.11138524e+00  2.76525821e+00 -2.46978490e+00
Ar  1.18601248e+00 -2.50494357e+00 -3.40533773e+00
Ar -3.32239000e+00 -2.10048643e+00  7.66613866e-01
Ar -9.41307615e-01 -3.13742157e+00 -2.32057611e-01
Ar  2.13166801e+00 -5.07466539e-01 -1.73138561e+00
Ar  2.47742419e+00  2.93196605e-01  1.61399988e+00
Ar -1.49414015e+00  1.77758681e+00 -3.80582158e-01
Ar -2.07250895e+00 -3.61304461e-01  1.56250610e+00
Ar  3.18803128e+00  1.75676623e+00 -2.32167649e-01
Ar  2.44363318e+00 -2.31079754e+00  2.05893118e+00
Ar -3.19526512e+00  3.11222698e+00  1.29468417e+00
Ar  2.17573200e+00 -2.50110467e+00  6.73352346e-01
Ar  2.79261341e+00  1.87697026e+00 -9.16104614e-01
Ar  3.03888704e+00  2.63214323e+00 -3.75024451e-01
Ar -2.29227902e+00 -6.40237278e-01 -7.13664087e-02
Ar -3.20703720e+00  7.41652265e-01  1.99903827e+00
Ar -2.11786663e+00  7.97253763e-02  2.80218408e+00
Ar -1.30785872e+00  3.02751872e+00 -7.65900639e-01
Ar  2.94466246e+00  2.81382823e+00 -1.10999087e+00
Ar  1.86456562e-01  1.51193013e+00  3.09161408e+00
Ar  1.73713587e+00  1.78334688e+00 -2.81483877e+00
Ar  2.54802979e+00 -2.28258819e+00 -3.39144753e+00
Ar -4.72583096e-01 -1.32920884e+00 -9.44397991e-01
Ar -6.31906861e-01 -2.47849915e+00 -8.43035010e-01
Ar -1.22970406e+00 -3.40797704e+00 -1.88198893e+00
Ar -3.29186857e+00 -1.99308365e+00  1.53735084e-01
Ar -3.74469524e-02  2.61641378e+00  1.87297154e+00
Ar -3.02302334e+00 -2.68743349e+00  2.84481580e-01
Ar -1.08128142e+00 -2.95402603e-01  6.02744233e-01
Ar  6.87106393e-01 -2.85751307e+00  2.19528066e+00
Ar -7.75532818e-01  4.66858210e-01 -2.02842029e+00
Ar  2.80094127e+00 -2.38486915e+00 -1.69444114e+00
Ar -2.53805290e+00 -2.31487253e+00  3.39345113e+00
Ar  1.29316315e+00  2.23748971e+00  8.89733646e-01
Ar -1.16728103e+00  1.62484156e+00  2.21259071e+00
Ar  1.51340392e+00  1.08058448e+00 -9.65968932e-01
Ar  7.54884383e-01 -5.81366882e-01  2.15425631e+00
Ar  1.87251610e+00 -1.50334113e+00 -3.21588552e+00
Ar  6.91112321e-01  9.63818598e-02  8.90655312e-01
Ar -2.28257891e+00 -1.42332913e+00 -3.07050207e-01
Ar  1.09708820e+00  1.69996004e+00 -5.09944924e-01
Ar  8.07465908e-01  8.09087566e-01  2.42431089e+00
Ar -2.33986564e+00 -1.36476958e+00  3.38003586e+00
Ar -3.35714801e+00  3.08789670e+00  3.35671566e+00
Ar -2.02308906e+00  8.49163778e-01  3.16044905e+00
Ar  5.21126495e-01  2.90461591e-01 -4.91951235e-01
Ar -3.43691890e-01 -1.32143301e+00 -2.04640429e+00
Ar -1.96326756e+00 -3.04043939e+00 -2.02797674e+00
Ar  4.17633384e-01  2.80014444e+00 -5.18209184e-01
Ar  1.17258116e+00 -1.12520510e+00  6.96842444e-01
Ar -7.39081559e-01 -3.18842007e+00 -1.46704734e+00
Ar -2.79338917e+00 -3.80404363e-01  2.91336554e+00
Ar  2.62760493e+00  7.89210505e-01  2.31325183e+00
Ar -3.32267709e+00  1.27816644e+00  2.38576206e+00
Ar -2.58045460e+00 -3.19573408e+00 -3.09190952e+00
Ar -1.02899333e+00  2.52693398e+00  3.31242212e+00
Ar  2.92135696e+00  2.66619029e+00  1.09836619e+00
Ar  1.05957604e+00 -2.89779445e+00 -2.78399719e+00
Ar  3.39210402e+00  1.72110032e-01  2.01562868e+00
Ar  1.05347342e+00  3.13900565e-01  2.04094990e+00
Ar  1.46099914e+00 -1.73140840e+00 -1.96770315e+00
Ar -2.38077226e+00 -6.71856509e-02 -1.30712126e-01
Ar -2.64030513e+00  3.43693426e-02  2.37337136e+00
Ar -3.28667139e+00  2.31362839e+00  3.11682781e+00
Ar -3.24820020e+00  2.73341266e+00 -2.95877132e+00
Ar -3.16029391e+00 -2.11861294e+00 -1.52758597e+00
Ar -2.87535534e-01  8.79753894e-01 -2.40361237e+00
Ar -1.87702940e-01  1.11237597e+00  2.66286845e-01
Ar -8.89074352e-01 -7.10701200e-01  1.45891811e+00
Ar  1.47060831e+00 -1.46040832e+00 -2.55292425e+00
Ar  2.80969292e+00  1.64782690e+00 -1.78482041e+00
Ar  1.03517702e+00 -9.00053883e-01 -3.24087328e+00
Ar  2.38889030e+00 -3.13393408e+00 -3.03608920e+00
Ar -6.79096974e-01 -4.55568238e-01 -2.29409067e-01
Ar  3.28675616e+00  7.35325578e-01  2.82252721e+00
Ar  1.82269336e+00  1.46495919e+00  3.34436999e+00
Ar -3.07675999e+00 -1.69084790e+00 -3.20228087e+00
Ar -2.86813503e+00 -2.36225777e+00 -2.63779651e+00
Ar  1.68938452e+00  2.94779220e+00 -2.48384488e+00
Ar  6.33454937e-01 -2.58189839e+00  6.78368155e-01
Ar -2.96938795e+00 -1.66876083e+00 -5.98828982e-01
Ar  3.07655859e+00 -9.90555936e-01 -3.40358527e+00
Ar  3.27080441e+00  1.87879499e+00  2.52936823e+00
Ar -3.74564097e-01  2.63633823e+00 -3.26571623e+00
Ar -1.99397416e+00 -5.24392355e-01  3.31614386e+00
Ar  3.57402556e-01  6.48559257e-01 -3.03053538e-01
Ar -3.85604089e-01  1.77363803e+00 -1.32657931e+00
Ar -7.00348942e-01 -2.85440882e+00 -2.35026630e+00
Ar  1.35524226e+00 -2.18570526e+00  2.68860863e+00
Ar  1.68074547e+00 -1.23190474e+00 -2.38759985e+00
Ar  2.27753762e+00 -4.71121275e-01  6.11547354e-01
Ar  3.26688901e+00  1.83926992e-02  2.71995193e+00
Ar  1.45128460e+00 -1.42988204e+00 -2.60651260e-01
Ar -1.73361717e+00  3.23307821e+00  3.41630807e+00
Ar  2.94994433e+00  2.63685603e+00 -2.82593198e+00
Ar -7.30910810e-02 -2.86301013e+00  2.40790925e+00
Ar  2.52331166e+00 -2.76481404e+00  2.60102133e+00
Ar  3.37911253e+00 -2.15501410e+00 -2.73038761e-01
Ar  8.91096798e-01  2.86845243e+00 -2.88042985e+00
Ar  3.65038030e-01  1.01928077e-01  1.17558859e+00
Ar  2.61331421e+00  1.48993055e+00  1.26154360e+00
Ar  2.20456043e+00 -1.77333379e+00  1.66542929e+00
Ar  1.83967957e+00  3.25712797e-01 -1.05317294e-01
Ar -4.77966298e-01 -3.03644488e+00  1.91897725e-01
Ar  5.83013092e-02  1.65233926e+00 -2.54319079e+00
Ar -3.33734363e+00  1.77678917e+00 -2.64577093e+00
Ar  3.31601021e+00 -2.77016905e+00 -2.49349273e+00
Ar  2.79986595e+00  1.73682657e+00 -2.00385808e+00
Ar  7.06626283e-01 -1.65338840e+00  2.65134528e+00
Ar -7.50546530e-01 -3.08125303e+00  3.15686491e+00
Ar -2.47651464e-01  2.41059733e+00 -1.76201963e+00
Ar -7.55003805e-02  4.87372821e-01  2.41372808e+00
Ar -2.04413598e+00  2.83606562e+00 -3.05120311e+00
Ar -6.26602792e-01 -3.05183456e+00 -2.70065169e+00
Ar  3.01195093e-01  3.74954882e-01 -2.57373963e+00
Ar -3.03768755e+00  1.18977370e-01  1.26030977e+00
Ar -5.17478655e-03 -9.52398942e-01 -3.30496732e+00
Ar -9.13092367e-01  2.84266838e+00  3.37135922e-02
Ar  2.47446062e+00  2.89696101e+00 -3.31497924e+00
Ar -1.43664303e+00 -1.78276750e+00  1.48058217e+00
Ar -2.72519915e+00  1.89723768e+00 -1.74648584e+00
Ar -4.67420602e-01  6.26530549e-01  9.92880466e-02
Ar  1.83743983e+00  1.51563704e+00  2.07645192e+00
Ar  1.69292430e+00  3.11137804e-02  2.29427576e+00
Ar -3.01459076e+00  5.18946898e-01  2.47431858e+00
Ar  3.64826725e-01  2.37601060e+00 -2.69565978e+00
Ar  1.46772009e+00  3.31199663e+00 -3.21788618e+00
Ar -1.42718631e+00  1.17260424e+00 -1.36636303e+00
Ar -3.78000541e-01 -1.67281008e+00 -2.69992966e+00
Ar -2.36126205e+00 -2.74637984e+00 -4.94162665e-01
Ar  2.26381341e+00 -1.66395351e+00 -2.42528113e+00
Ar -3.32502630e+00 -1.90647168e+00 -1.00604419e+00
Ar  1.79157639e+00 -5.38966571e-01  1.27694934e+00
Ar  1.82566645e-01 -1.16361095e+00 -2.43743789e+00
Ar -9.77679759e-01  1.65596822e+00  1.57959682e+00
Ar  1.58654115e+00 -2.23144901e+00  3.87803898e-01
Ar  1.26889882e+00  2.53388041e+00  3.99402320e-01
Ar -1.20838107e+00  1.61677964e-01  3.08184226e+00
Ar  2.89445012e+00  1.72854629e+00  1.27879331e+00
Ar -1.21003902e+00 -9.73885944e-01  1.40331812e+00
Ar  1.16165892e+00 -8.07976218e-01  3.37775887e+00
Ar -6.29609579e-01  1.14576608e+00 -1.91896469e+00
Ar -2.81245273e+00  8.04174573e-01 -3.28875130e+00
Ar -1.94272633e+00 -1.97136013e+00 -9.81597365e-01
Ar -5.16387110e-01 -1.64006419e+00  3.67029966e-01
Ar  2.09769586e+00 -7.13909200e-01  1.72465298e+00
Ar  1.34939098e+00  9.02766369e-01 -2.57835315e+00
Ar  1.63192993e+00 -2.14640910e+00 -3.17802644e+00
Ar -1.72062663e+00 -2.47146497e+00 -2.17035211e+00
Ar  1.95934905e-01 -1.27979346e+00  2.74387044e+00
Ar -1.91396491e-01 -2.93137661e+00 -2.35156421e+00
Ar  2.41382536e-01  9.76969940e-01  2.33984525e+00
Ar  2.95244152e+00 -1.02052166e+00 -8.25034344e-01
Ar  1.54258379e+00 -3.23290957e+00 -2.59593034e+00
Ar -1.67957424e+00  3.10330251e+00  2.37559208e+00
Ar  1.17360421e+00  1.31714780e+00  2.02264775e+00
Ar  1.68327016e-01  5.68924905e-01  1.25798844e+00
Ar -2.71860578e-01  1.77669539e+00 -1.53020095e+00
Ar -1.41809984e+00 -2.74757377e+00 -2.72020974e+00
Ar -1.59785267e-01 -1.89020726e+00  2.98589306e+00
Ar -1.15881706e+00 -1.63511024e+00 -2.24794428e+00
Ar  2.46515046e+00  2.36933924e+00 -1.80199945e-01
Ar -2.08591622e+00  1.71781019e+00 -2.57768185e+00
Ar -2.00731564e+00 -1.74074807e+00 -2.37790145e+00
Ar -1.37342433e+00  1.98343881e+00 -2.31010553e+00
Ar -1.65351566e+00  2.59616721e+00 -1.94800297e+00
Ar  1.05371216e+00  8.26032462e-01  1.95088138e+00
Ar -1.12836041e+00  7.74936048e-01 -1.66557287e+00
Ar -3.15925544e+00  2.20213181e+00 -5.47804745e-01
Ar -4.75600469e-01  1.69353050e+00  2.06176230e+00
Ar -1.34507157e-01  1.47673436e+00 -7.68117318e-01
Ar -3.20973980e+00 -7.10722817e-01  2.78388933e+00
Ar  7.68489386e-01  2.28565707e+00  1.76348082e+00
Ar  7.29048048e-01  2.47221523e+00 -6.44945766e-01
Ar -1.75337600e+00  7.67930544e-01 -2.67348291e+00
Ar -6.52655795e-02  2.35983580e+00  1.39620502e+00
Ar -2.69689693e+00  1.37325325e+00 -3.16075867e+00
Ar -5.00042388e-01  1.58886584e+00 -1.53807505e+00
Ar -1.12351388e+00 -1.27209340e+00 -1.92618034e+00
Ar  8.61533710e-01  7.09147085e-01 -3.03549650e+00
Ar -6.43460756e-03 -2.44388261e+00 -1.52290871e+00
Ar  9.58101735e-01 -3.33523080e+00 -2.76911865e+00
Ar -3.01202101e+00 -3.34958365e+00  2.89977370e+00
Ar -2.86270405e+00  1.25581381e+00  4.84728247e-01
Ar -6.00897914e-01  3.33952752e+00 -2.71130655e-01
Ar  1.36636817e+00  1.27999667e+00  2.39569910e-01
Ar  4.32629875e-01  2.24447018e-01  7.01276794e-01
Ar -8.77195257e-01  2.72085543e+00 -1.74034705e+00
Ar -5.99230203e-01  4.80138543e-01 -1.43595014e+00
Ar  2.19192868e+00 -1.72588290e+00 -1.66772389e+00
Ar -8.78975678e-02 -2.91632845e+00 -2.74896492e+00
Ar -1.82624452e+00  8.03905809e-01  1.39244342e+00
Ar -1.73295535e+00  1.98541790e+00 -2.57620128e+00
Ar -7.04053942e-01  2.11374673e+00 -2.30681830e+00
Ar -4.79698305e-01  1.28188873e+00 -3.11744237e+00
Ar  2.93556111e-01  5.51140067e-02  2.82746157e+00
Ar -4.18530297e-01  2.48953433e+00  2.28013809e+00
Ar  1.16971022e+00  2.60423129e+00  2.77286645e+00
Ar -2.49186342e+00 -2.71771222e+00  1.25381233e+00
Ar -2.47840500e+00  2.92607067e+00 -1.39807511e+00
Ar -2.75191787e+00  6.43661771e-01 -1.97925169e+00
Ar  1.32204167e+00 -1.32010796e+00  2.08615963e+00
Ar  2.40911236e+00  1.84050620e+00  6.10986897e-01
Ar  2.42712883e+00  2.27087717e+00  9.60599042e-01
Ar -2.62012251e+00  8.26702506e-01  1.93371437e+00
Ar  2.80413431e+00 -3.35919412e-01 -2.76154466e+00
Ar  3.02758201e+00  2.39967699e+00 -2.49072728e+00
Ar  2.21947330e+00  1.28168226e+00  3.76380633e-01
Ar  3.15712132e+00 -1.07486628e+00  1.83072674e+00
Ar -2.00491624e+00 -5.43753495e-01  2.42481261e+00
Ar -3.23774576e+00 -1.51488433e+00  1.97099853e-01
Ar  8.72121213e-01  1.87317640e+00  8.73654665e-01
Ar  1.85306981e+00 -2.58608370e+00  2.53082924e+00
Ar  1.85321235e+00  2.42219778e+00 -7.40024514e-02
Ar  1.74769279e+00 -1.38912511e+00 -1.49486366e+00
Ar -2.06606557e+00 -1.38847498e+00 -1.60452803e-01
Ar -1.31964079e+00 -8.52984616e-01  7.27891551e-01
Ar -5.93086618e-01  2.61684032e+00 -3.02928834e+00
Ar -2.87384965e+00  1.66556662e+00 -3.85460929e-01
Ar -2.13545645e-01  3.76310374e-01  3.04524360e+00
Ar -1.73474830e-01  3.15567051e+00 -8.01641205e-01
Ar -2.52147449e-01 -3.17057102e+00 -1.14516650e+00
Ar  2.40564608e+00  2.94333389e+00  1.46613617e+00
Ar -1.77394234e+00 -2.06224695e+00  2.47543345e+00
Ar  1.33807644e+00 -2.26150233e+00  2.42647054e+00
Ar -2.14311874e+00 -2.99993448e+00  2.86060742e+00
Ar -1.19811825e+00 -2.03015602e+00 -1.38952100e+00
Ar -3.40016172e+00 -1.64397979e+00  2.53460815e+00
256
Lattice="6.839904 0.0 0.0 0.0 6.839904 0.0 0.0 0.0 6.839904" Properties=species:S:1:pos:R:3 Time=3
Ar  3.29343640e+00 -3.39577381e+00 -3.13233268e+00
Ar -2.28659301e+00 -9.96554283e-01 -2.68218981e+00
Ar -2.77363040e+00 -1.42918553e-01  3.61920764e-01
Ar -4.30458452e-01 -1.87632488e+00  2.15875090e+00
Ar  3.01646497e+00  5.27230986e-01  1.60391992e-01
Ar -3.07226649e+00  1.82660424e+00 -3.29057646e+00
Ar -1.79878930e+00 -1.28165863e+00  2.67851384e+00
Ar  1.80839198e-01  3.16830028e+00  2.40341265e-01
Ar  2.12330759e+00 -2.13117551e+00  2.64235363e+00
Ar  2.99333534e-01 -2.87544049e+00  2.31636676e+00
Ar  3.31660791e+00 -2.61043759e+00  2.69427846e+00
Ar  2.13100500e+00 -3.00269648e+00 -1.60236216e+00
Ar -3.28423683e+00 -8.31886375e-01  1.22350428e+00
Ar  1.23749618e+00  1.72848925e+00 -3.37734303e+00
Ar  7.10228009e-01 -2.37270768e+00  1.00670702e+00
Ar  1.85312325e+00 -2.14406482e+00 -2.24232697e-02
Ar  6.49817654e-02 -1.25895951e+00  1.37962611e+00
Ar -8.26634927e-01  2.54865969e+00 -1.01870655e+00
Ar  2.17386586e-01 -5.91958094e-01  3.11062491e-01
Ar  1.14895739e+00 -2.24935824e+00  2.26249746e+00
Ar  2.56742534e+00  1.88454995e+00 -2.97727256e+00
Ar  3.28394729e+00 -1.14709224e+00 -2.85820262e+00
Ar -1.43483971e+00 -2.80464258e+00  1.10489377e+00
Ar  2.04445032e+00 -1.32543513e-01  5.24374652e-01
Ar  8.34674901e-02  5.91722347e-01  1.63308543e+00
Ar  2.41919675e+00  6.43783687e-01  3.19561489e+00
Ar -1.13864359e+00 -7.33046378e-01 -2.20978324e+00
Ar -2.59569380e+00  2.58081783e+00  2.22003198e+00
Ar  3.11138524e+00  2.76525821e+00 -2.46978490e+00
Ar  1.18601248e+00 -2.50494357e+00 -3.40533773e+00
Ar -3.32239000e+00 -2.10048643e+00  7.66613866e-01
Ar -9.41307615e-01 -3.13742157e+00 -2.32057611e-01
Ar  2.13166801e+00 -5.07466539e-01 -1.73138561e+00
Ar  2.47742419e+00  2.93196605e-01  1.61399988e+00
Ar -1.49414015e+00  1.77758681e+00 -3.80582158e-01
Ar -2.07250895e+00 -3.61304461e-01  1.56250610e+00
Ar  3.18803128e+00  1.75676623e+00 -2.32167649e-01
Ar  2.44363318e+00 -2.31079754e+00  2.05893118e+00
Ar -3.19526512e+00  3.11222698e+00  1.29468417e+00
Ar  2.17573200e+00 -2.50110467e+00  6.73352346e-01
Ar  2.79261341e+00  1.87697026e+00 -9.16104614e-01
Ar  3.10941590e+00  2.70412362e+00 -2.61602070e-01
Ar -2.40882021e+00 -6.40922961e-01  3.16539017e-02
Ar -3.20703720e+00  7.41652265e-01  1.99903827e+00
Ar -2.11786663e+00  7.97253763e-02  2.80218408e+00
Ar -1.30062354e+00  3.06221195e+00 -8.08838400e-01
Ar  2.94466246e+00  2.81382823e+00 -1.10999087e+00
Ar  1.86456562e-01  1.51193013e+00  3.09161408e+00
Ar  1.73713587e+00  1.78334688e+00 -2.81483877e+00
Ar  2.67439212e+00 -2.18499222e+00 -3.30258393e+00
Ar -4.37997322e-01 -1.21624083e+00 -9.35406902e-01
Ar -6.31906861e-01 -2.47849915e+00 -8.43035010e-01
Ar -1.22970406e+00 -3.40797704e+00 -1.88198893e+00
Ar -3.29186857e+00 -1.99308365e+00  1.53735084e-01
Ar -1.80466609e-01  2.76407140e+00  1.83285789e+00
Ar -3.02302334e+00 -2.68743349e+00  2.84481580e-01
Ar -9.62627064e-01 -2.81331173e-01  6.75197606e-01
Ar  6.87106393e-01 -2.85751307e+00  2.19528066e+00
Ar -7.75532818e-01  4.66858210e-01 -2.02842029e+00
Ar  2.80094127e+00 -2.38486915e+00 -1.69444114e+00
Ar -2.53805290e+00 -2.31487253e+00  3.39345113e+00
Ar  1.29316315e+00  2.23748971e+00  8.89733646e-01
Ar -1.24128291e+00  1.70900926e+00  2.33854816e+00
Ar  1.51340392e+00  1.08058448e+00 -9.65968932e-01
Ar  7.54884383e-01 -5.81366882e-01  2.15425631e+00
Ar  1.87251610e+00 -1.50334113e+00 -3.21588552e+00
Ar  6.91112321e-01  9.63818598e-02  8.90655312e-01
Ar -2.28257891e+00 -1.42332913e+00 -3.07050207e-01
Ar  1.09708820e+00  1.69996004e+00 -5.09944924e-01
Ar  8.07465908e-01  8.09087566e-01  2.42431089e+00